ITEM: TIMESTEP
0
ITEM: NUMBER OF ATOMS
1440
ITEM: BOX BOUNDS pp pp pp
0 32.7038
0 33.9868
0 17.9938
ITEM: ATOMS id type q x y z vx vy vz fx fy fz 
1 1 0.746764 0 1.88815 1 0 0 0 0 0 0 
2 1 0.746764 1.63519 4.72039 1 0 0 0 0 0 0 
3 1 0.746764 3.27038 1.88815 1 0 0 0 0 0 0 
4 1 0.746764 4.90557 4.72039 1 0 0 0 0 0 0 
5 1 0.746764 6.54076 1.88815 1 0 0 0 0 0 0 
6 1 0.746764 8.17595 4.72039 1 0 0 0 0 0 0 
7 1 0.746764 9.81114 1.88815 1 0 0 0 0 0 0 
8 1 0.746764 11.4463 4.72039 1 0 0 0 0 0 0 
9 1 0.746764 13.0815 1.88815 1 0 0 0 0 0 0 
10 1 0.746764 14.7167 4.72039 1 0 0 0 0 0 0 
11 1 0.746764 16.3519 1.88815 1 0 0 0 0 0 0 
12 1 0.746764 17.9871 4.72039 1 0 0 0 0 0 0 
13 1 0.746764 19.6223 1.88815 1 0 0 0 0 0 0 
14 1 0.746764 21.2575 4.72039 1 0 0 0 0 0 0 
15 1 0.746764 22.8927 1.88815 1 0 0 0 0 0 0 
16 1 0.746764 24.5279 4.72039 1 0 0 0 0 0 0 
17 1 0.746764 26.163 1.88815 1 0 0 0 0 0 0 
18 1 0.746764 27.7982 4.72039 1 0 0 0 0 0 0 
19 1 0.746764 29.4334 1.88815 1 0 0 0 0 0 0 
20 1 0.746764 31.0686 4.72039 1 0 0 0 0 0 0 
21 1 0.746764 0 7.55262 1 0 0 0 0 0 0 
22 1 0.746764 1.63519 10.3849 1 0 0 0 0 0 0 
23 1 0.746764 3.27038 7.55262 1 0 0 0 0 0 0 
24 1 0.746764 4.90557 10.3849 1 0 0 0 0 0 0 
25 1 0.746764 6.54076 7.55262 1 0 0 0 0 0 0 
26 1 0.746764 8.17595 10.3849 1 0 0 0 0 0 0 
27 1 0.746764 9.81114 7.55262 1 0 0 0 0 0 0 
28 1 0.746764 11.4463 10.3849 1 0 0 0 0 0 0 
29 1 0.746764 13.0815 7.55262 1 0 0 0 0 0 0 
30 1 0.746764 14.7167 10.3849 1 0 0 0 0 0 0 
31 1 0.746764 16.3519 7.55262 1 0 0 0 0 0 0 
32 1 0.746764 17.9871 10.3849 1 0 0 0 0 0 0 
33 1 0.746764 19.6223 7.55262 1 0 0 0 0 0 0 
34 1 0.746764 21.2575 10.3849 1 0 0 0 0 0 0 
35 1 0.746764 22.8927 7.55262 1 0 0 0 0 0 0 
36 1 0.746764 24.5279 10.3849 1 0 0 0 0 0 0 
37 1 0.746764 26.163 7.55262 1 0 0 0 0 0 0 
38 1 0.746764 27.7982 10.3849 1 0 0 0 0 0 0 
39 1 0.746764 29.4334 7.55262 1 0 0 0 0 0 0 
40 1 0.746764 31.0686 10.3849 1 0 0 0 0 0 0 
41 1 0.746764 0 13.2171 1 0 0 0 0 0 0 
42 1 0.746764 1.63519 16.0493 1 0 0 0 0 0 0 
43 1 0.746764 3.27038 13.2171 1 0 0 0 0 0 0 
44 1 0.746764 4.90557 16.0493 1 0 0 0 0 0 0 
45 1 0.746764 6.54076 13.2171 1 0 0 0 0 0 0 
46 1 0.746764 8.17595 16.0493 1 0 0 0 0 0 0 
47 1 0.746764 9.81114 13.2171 1 0 0 0 0 0 0 
48 1 0.746764 11.4463 16.0493 1 0 0 0 0 0 0 
49 1 0.746764 13.0815 13.2171 1 0 0 0 0 0 0 
50 1 0.746764 14.7167 16.0493 1 0 0 0 0 0 0 
51 1 0.746764 16.3519 13.2171 1 0 0 0 0 0 0 
52 1 0.746764 17.9871 16.0493 1 0 0 0 0 0 0 
53 1 0.746764 19.6223 13.2171 1 0 0 0 0 0 0 
54 1 0.746764 21.2575 16.0493 1 0 0 0 0 0 0 
55 1 0.746764 22.8927 13.2171 1 0 0 0 0 0 0 
56 1 0.746764 24.5279 16.0493 1 0 0 0 0 0 0 
57 1 0.746764 26.163 13.2171 1 0 0 0 0 0 0 
58 1 0.746764 27.7982 16.0493 1 0 0 0 0 0 0 
59 1 0.746764 29.4334 13.2171 1 0 0 0 0 0 0 
60 1 0.746764 31.0686 16.0493 1 0 0 0 0 0 0 
61 1 0.746764 0 18.8815 1 0 0 0 0 0 0 
62 1 0.746764 1.63519 21.7138 1 0 0 0 0 0 0 
63 1 0.746764 3.27038 18.8815 1 0 0 0 0 0 0 
64 1 0.746764 4.90557 21.7138 1 0 0 0 0 0 0 
65 1 0.746764 6.54076 18.8815 1 0 0 0 0 0 0 
66 1 0.746764 8.17595 21.7138 1 0 0 0 0 0 0 
67 1 0.746764 9.81114 18.8815 1 0 0 0 0 0 0 
68 1 0.746764 11.4463 21.7138 1 0 0 0 0 0 0 
69 1 0.746764 13.0815 18.8815 1 0 0 0 0 0 0 
70 1 0.746764 14.7167 21.7138 1 0 0 0 0 0 0 
71 1 0.746764 16.3519 18.8815 1 0 0 0 0 0 0 
72 1 0.746764 17.9871 21.7138 1 0 0 0 0 0 0 
73 1 0.746764 19.6223 18.8815 1 0 0 0 0 0 0 
74 1 0.746764 21.2575 21.7138 1 0 0 0 0 0 0 
75 1 0.746764 22.8927 18.8815 1 0 0 0 0 0 0 
76 1 0.746764 24.5279 21.7138 1 0 0 0 0 0 0 
77 1 0.746764 26.163 18.8815 1 0 0 0 0 0 0 
78 1 0.746764 27.7982 21.7138 1 0 0 0 0 0 0 
79 1 0.746764 29.4334 18.8815 1 0 0 0 0 0 0 
80 1 0.746764 31.0686 21.7138 1 0 0 0 0 0 0 
81 1 0.746764 0 24.546 1 0 0 0 0 0 0 
82 1 0.746764 1.63519 27.3782 1 0 0 0 0 0 0 
83 1 0.746764 3.27038 24.546 1 0 0 0 0 0 0 
84 1 0.746764 4.90557 27.3782 1 0 0 0 0 0 0 
85 1 0.746764 6.54076 24.546 1 0 0 0 0 0 0 
86 1 0.746764 8.17595 27.3782 1 0 0 0 0 0 0 
87 1 0.746764 9.81114 24.546 1 0 0 0 0 0 0 
88 1 0.746764 11.4463 27.3782 1 0 0 0 0 0 0 
89 1 0.746764 13.0815 24.546 1 0 0 0 0 0 0 
90 1 0.746764 14.7167 27.3782 1 0 0 0 0 0 0 
91 1 0.746764 16.3519 24.546 1 0 0 0 0 0 0 
92 1 0.746764 17.9871 27.3782 1 0 0 0 0 0 0 
93 1 0.746764 19.6223 24.546 1 0 0 0 0 0 0 
94 1 0.746764 21.2575 27.3782 1 0 0 0 0 0 0 
95 1 0.746764 22.8927 24.546 1 0 0 0 0 0 0 
96 1 0.746764 24.5279 27.3782 1 0 0 0 0 0 0 
97 1 0.746764 26.163 24.546 1 0 0 0 0 0 0 
98 1 0.746764 27.7982 27.3782 1 0 0 0 0 0 0 
99 1 0.746764 29.4334 24.546 1 0 0 0 0 0 0 
100 1 0.746764 31.0686 27.3782 1 0 0 0 0 0 0 
101 1 0.746764 0 30.2105 1 0 0 0 0 0 0 
102 1 0.746764 1.63519 33.0427 1 0 0 0 0 0 0 
103 1 0.746764 3.27038 30.2105 1 0 0 0 0 0 0 
104 1 0.746764 4.90557 33.0427 1 0 0 0 0 0 0 
105 1 0.746764 6.54076 30.2105 1 0 0 0 0 0 0 
106 1 0.746764 8.17595 33.0427 1 0 0 0 0 0 0 
107 1 0.746764 9.81114 30.2105 1 0 0 0 0 0 0 
108 1 0.746764 11.4463 33.0427 1 0 0 0 0 0 0 
109 1 0.746764 13.0815 30.2105 1 0 0 0 0 0 0 
110 1 0.746764 14.7167 33.0427 1 0 0 0 0 0 0 
111 1 0.746764 16.3519 30.2105 1 0 0 0 0 0 0 
112 1 0.746764 17.9871 33.0427 1 0 0 0 0 0 0 
113 1 0.746764 19.6223 30.2105 1 0 0 0 0 0 0 
114 1 0.746764 21.2575 33.0427 1 0 0 0 0 0 0 
115 1 0.746764 22.8927 30.2105 1 0 0 0 0 0 0 
116 1 0.746764 24.5279 33.0427 1 0 0 0 0 0 0 
117 1 0.746764 26.163 30.2105 1 0 0 0 0 0 0 
118 1 0.746764 27.7982 33.0427 1 0 0 0 0 0 0 
119 1 0.746764 29.4334 30.2105 1 0 0 0 0 0 0 
120 1 0.746764 31.0686 33.0427 1 0 0 0 0 0 0 
121 2 -0.916168 0 0 1.66641 0 0 0 0 0 0 
122 2 -0.916168 1.63519 2.83223 1.66641 0 0 0 0 0 0 
123 2 -0.916168 3.27038 0 1.66641 0 0 0 0 0 0 
124 2 -0.916168 4.90557 2.83223 1.66641 0 0 0 0 0 0 
125 2 -0.916168 6.54076 0 1.66641 0 0 0 0 0 0 
126 2 -0.916168 8.17595 2.83223 1.66641 0 0 0 0 0 0 
127 2 -0.916168 9.81114 0 1.66641 0 0 0 0 0 0 
128 2 -0.916168 11.4463 2.83223 1.66641 0 0 0 0 0 0 
129 2 -0.916168 13.0815 0 1.66641 0 0 0 0 0 0 
130 2 -0.916168 14.7167 2.83223 1.66641 0 0 0 0 0 0 
131 2 -0.916168 16.3519 0 1.66641 0 0 0 0 0 0 
132 2 -0.916168 17.9871 2.83223 1.66641 0 0 0 0 0 0 
133 2 -0.916168 19.6223 0 1.66641 0 0 0 0 0 0 
134 2 -0.916168 21.2575 2.83223 1.66641 0 0 0 0 0 0 
135 2 -0.916168 22.8927 0 1.66641 0 0 0 0 0 0 
136 2 -0.916168 24.5279 2.83223 1.66641 0 0 0 0 0 0 
137 2 -0.916168 26.163 0 1.66641 0 0 0 0 0 0 
138 2 -0.916168 27.7982 2.83223 1.66641 0 0 0 0 0 0 
139 2 -0.916168 29.4334 0 1.66641 0 0 0 0 0 0 
140 2 -0.916168 31.0686 2.83223 1.66641 0 0 0 0 0 0 
141 2 -0.916168 0 5.66446 1.66641 0 0 0 0 0 0 
142 2 -0.916168 1.63519 8.4967 1.66641 0 0 0 0 0 0 
143 2 -0.916168 3.27038 5.66446 1.66641 0 0 0 0 0 0 
144 2 -0.916168 4.90557 8.4967 1.66641 0 0 0 0 0 0 
145 2 -0.916168 6.54076 5.66446 1.66641 0 0 0 0 0 0 
146 2 -0.916168 8.17595 8.4967 1.66641 0 0 0 0 0 0 
147 2 -0.916168 9.81114 5.66446 1.66641 0 0 0 0 0 0 
148 2 -0.916168 11.4463 8.4967 1.66641 0 0 0 0 0 0 
149 2 -0.916168 13.0815 5.66446 1.66641 0 0 0 0 0 0 
150 2 -0.916168 14.7167 8.4967 1.66641 0 0 0 0 0 0 
151 2 -0.916168 16.3519 5.66446 1.66641 0 0 0 0 0 0 
152 2 -0.916168 17.9871 8.4967 1.66641 0 0 0 0 0 0 
153 2 -0.916168 19.6223 5.66446 1.66641 0 0 0 0 0 0 
154 2 -0.916168 21.2575 8.4967 1.66641 0 0 0 0 0 0 
155 2 -0.916168 22.8927 5.66446 1.66641 0 0 0 0 0 0 
156 2 -0.916168 24.5279 8.4967 1.66641 0 0 0 0 0 0 
157 2 -0.916168 26.163 5.66446 1.66641 0 0 0 0 0 0 
158 2 -0.916168 27.7982 8.4967 1.66641 0 0 0 0 0 0 
159 2 -0.916168 29.4334 5.66446 1.66641 0 0 0 0 0 0 
160 2 -0.916168 31.0686 8.4967 1.66641 0 0 0 0 0 0 
161 2 -0.916168 0 11.3289 1.66641 0 0 0 0 0 0 
162 2 -0.916168 1.63519 14.1612 1.66641 0 0 0 0 0 0 
163 2 -0.916168 3.27038 11.3289 1.66641 0 0 0 0 0 0 
164 2 -0.916168 4.90557 14.1612 1.66641 0 0 0 0 0 0 
165 2 -0.916168 6.54076 11.3289 1.66641 0 0 0 0 0 0 
166 2 -0.916168 8.17595 14.1612 1.66641 0 0 0 0 0 0 
167 2 -0.916168 9.81114 11.3289 1.66641 0 0 0 0 0 0 
168 2 -0.916168 11.4463 14.1612 1.66641 0 0 0 0 0 0 
169 2 -0.916168 13.0815 11.3289 1.66641 0 0 0 0 0 0 
170 2 -0.916168 14.7167 14.1612 1.66641 0 0 0 0 0 0 
171 2 -0.916168 16.3519 11.3289 1.66641 0 0 0 0 0 0 
172 2 -0.916168 17.9871 14.1612 1.66641 0 0 0 0 0 0 
173 2 -0.916168 19.6223 11.3289 1.66641 0 0 0 0 0 0 
174 2 -0.916168 21.2575 14.1612 1.66641 0 0 0 0 0 0 
175 2 -0.916168 22.8927 11.3289 1.66641 0 0 0 0 0 0 
176 2 -0.916168 24.5279 14.1612 1.66641 0 0 0 0 0 0 
177 2 -0.916168 26.163 11.3289 1.66641 0 0 0 0 0 0 
178 2 -0.916168 27.7982 14.1612 1.66641 0 0 0 0 0 0 
179 2 -0.916168 29.4334 11.3289 1.66641 0 0 0 0 0 0 
180 2 -0.916168 31.0686 14.1612 1.66641 0 0 0 0 0 0 
181 2 -0.916168 0 16.9934 1.66641 0 0 0 0 0 0 
182 2 -0.916168 1.63519 19.8256 1.66641 0 0 0 0 0 0 
183 2 -0.916168 3.27038 16.9934 1.66641 0 0 0 0 0 0 
184 2 -0.916168 4.90557 19.8256 1.66641 0 0 0 0 0 0 
185 2 -0.916168 6.54076 16.9934 1.66641 0 0 0 0 0 0 
186 2 -0.916168 8.17595 19.8256 1.66641 0 0 0 0 0 0 
187 2 -0.916168 9.81114 16.9934 1.66641 0 0 0 0 0 0 
188 2 -0.916168 11.4463 19.8256 1.66641 0 0 0 0 0 0 
189 2 -0.916168 13.0815 16.9934 1.66641 0 0 0 0 0 0 
190 2 -0.916168 14.7167 19.8256 1.66641 0 0 0 0 0 0 
191 2 -0.916168 16.3519 16.9934 1.66641 0 0 0 0 0 0 
192 2 -0.916168 17.9871 19.8256 1.66641 0 0 0 0 0 0 
193 2 -0.916168 19.6223 16.9934 1.66641 0 0 0 0 0 0 
194 2 -0.916168 21.2575 19.8256 1.66641 0 0 0 0 0 0 
195 2 -0.916168 22.8927 16.9934 1.66641 0 0 0 0 0 0 
196 2 -0.916168 24.5279 19.8256 1.66641 0 0 0 0 0 0 
197 2 -0.916168 26.163 16.9934 1.66641 0 0 0 0 0 0 
198 2 -0.916168 27.7982 19.8256 1.66641 0 0 0 0 0 0 
199 2 -0.916168 29.4334 16.9934 1.66641 0 0 0 0 0 0 
200 2 -0.916168 31.0686 19.8256 1.66641 0 0 0 0 0 0 
201 2 -0.916168 0 22.6579 1.66641 0 0 0 0 0 0 
202 2 -0.916168 1.63519 25.4901 1.66641 0 0 0 0 0 0 
203 2 -0.916168 3.27038 22.6579 1.66641 0 0 0 0 0 0 
204 2 -0.916168 4.90557 25.4901 1.66641 0 0 0 0 0 0 
205 2 -0.916168 6.54076 22.6579 1.66641 0 0 0 0 0 0 
206 2 -0.916168 8.17595 25.4901 1.66641 0 0 0 0 0 0 
207 2 -0.916168 9.81114 22.6579 1.66641 0 0 0 0 0 0 
208 2 -0.916168 11.4463 25.4901 1.66641 0 0 0 0 0 0 
209 2 -0.916168 13.0815 22.6579 1.66641 0 0 0 0 0 0 
210 2 -0.916168 14.7167 25.4901 1.66641 0 0 0 0 0 0 
211 2 -0.916168 16.3519 22.6579 1.66641 0 0 0 0 0 0 
212 2 -0.916168 17.9871 25.4901 1.66641 0 0 0 0 0 0 
213 2 -0.916168 19.6223 22.6579 1.66641 0 0 0 0 0 0 
214 2 -0.916168 21.2575 25.4901 1.66641 0 0 0 0 0 0 
215 2 -0.916168 22.8927 22.6579 1.66641 0 0 0 0 0 0 
216 2 -0.916168 24.5279 25.4901 1.66641 0 0 0 0 0 0 
217 2 -0.916168 26.163 22.6579 1.66641 0 0 0 0 0 0 
218 2 -0.916168 27.7982 25.4901 1.66641 0 0 0 0 0 0 
219 2 -0.916168 29.4334 22.6579 1.66641 0 0 0 0 0 0 
220 2 -0.916168 31.0686 25.4901 1.66641 0 0 0 0 0 0 
221 2 -0.916168 0 28.3223 1.66641 0 0 0 0 0 0 
222 2 -0.916168 1.63519 31.1546 1.66641 0 0 0 0 0 0 
223 2 -0.916168 3.27038 28.3223 1.66641 0 0 0 0 0 0 
224 2 -0.916168 4.90557 31.1546 1.66641 0 0 0 0 0 0 
225 2 -0.916168 6.54076 28.3223 1.66641 0 0 0 0 0 0 
226 2 -0.916168 8.17595 31.1546 1.66641 0 0 0 0 0 0 
227 2 -0.916168 9.81114 28.3223 1.66641 0 0 0 0 0 0 
228 2 -0.916168 11.4463 31.1546 1.66641 0 0 0 0 0 0 
229 2 -0.916168 13.0815 28.3223 1.66641 0 0 0 0 0 0 
230 2 -0.916168 14.7167 31.1546 1.66641 0 0 0 0 0 0 
231 2 -0.916168 16.3519 28.3223 1.66641 0 0 0 0 0 0 
232 2 -0.916168 17.9871 31.1546 1.66641 0 0 0 0 0 0 
233 2 -0.916168 19.6223 28.3223 1.66641 0 0 0 0 0 0 
234 2 -0.916168 21.2575 31.1546 1.66641 0 0 0 0 0 0 
235 2 -0.916168 22.8927 28.3223 1.66641 0 0 0 0 0 0 
236 2 -0.916168 24.5279 31.1546 1.66641 0 0 0 0 0 0 
237 2 -0.916168 26.163 28.3223 1.66641 0 0 0 0 0 0 
238 2 -0.916168 27.7982 31.1546 1.66641 0 0 0 0 0 0 
239 2 -0.916168 29.4334 28.3223 1.66641 0 0 0 0 0 0 
240 2 -0.916168 31.0686 31.1546 1.66641 0 0 0 0 0 0 
241 1 0.999765 0 0 3.66564 0 0 0 -9.21041e-11 1.40587e-05 0.978927 
242 1 0.999765 1.63519 2.83223 3.66564 0 0 0 -7.77902e-11 -3.5178e-05 0.978942 
243 1 0.999765 3.27038 0 3.66564 0 0 0 -1.18273e-10 1.40588e-05 0.978927 
244 1 0.999765 4.90557 2.83223 3.66564 0 0 0 -5.68985e-11 -3.5178e-05 0.978942 
245 1 0.999765 6.54076 0 3.66564 0 0 0 -5.43875e-11 1.40588e-05 0.978927 
246 1 0.999765 8.17595 2.83223 3.66564 0 0 0 -3.23324e-11 -3.51779e-05 0.978942 
247 1 0.999765 9.81114 0 3.66564 0 0 0 -1.45146e-11 1.40588e-05 0.978927 
248 1 0.999765 11.4463 2.83223 3.66564 0 0 0 -7.00064e-11 -3.51779e-05 0.978942 
249 1 0.999765 13.0815 0 3.66564 0 0 0 -7.86704e-12 1.40587e-05 0.978927 
250 1 0.999765 14.7167 2.83223 3.66564 0 0 0 -6.46435e-11 -3.5178e-05 0.978942 
251 1 0.999765 16.3519 0 3.66564 0 0 0 4.38907e-11 1.40586e-05 0.978927 
252 1 0.999765 17.9871 2.83223 3.66564 0 0 0 3.03541e-11 -3.5178e-05 0.978942 
253 1 0.999765 19.6223 0 3.66564 0 0 0 9.60092e-11 1.40585e-05 0.978927 
254 1 0.999765 21.2575 2.83223 3.66564 0 0 0 1.03672e-10 -3.51781e-05 0.978942 
255 1 0.999765 22.8927 0 3.66564 0 0 0 8.8635e-11 1.40585e-05 0.978927 
256 1 0.999765 24.5279 2.83223 3.66564 0 0 0 1.09243e-10 -3.51781e-05 0.978942 
257 1 0.999765 26.163 0 3.66564 0 0 0 5.82432e-11 1.40586e-05 0.978927 
258 1 0.999765 27.7982 2.83223 3.66564 0 0 0 7.07399e-11 -3.51781e-05 0.978942 
259 1 0.999765 29.4334 0 3.66564 0 0 0 5.57776e-13 1.40587e-05 0.978927 
260 1 0.999765 31.0686 2.83223 3.66564 0 0 0 -1.18874e-11 -3.51781e-05 0.978942 
261 1 0.999765 0 5.66446 3.66564 0 0 0 -1.9055e-11 -4.51192e-05 0.978957 
262 1 0.999765 1.63519 8.4967 3.66564 0 0 0 9.857e-12 -1.58978e-06 0.978972 
263 1 0.999765 3.27038 5.66446 3.66564 0 0 0 -1.64215e-11 -4.51192e-05 0.978957 
264 1 0.999765 4.90557 8.4967 3.66564 0 0 0 7.41514e-11 -1.58973e-06 0.978972 
265 1 0.999765 6.54076 5.66446 3.66564 0 0 0 2.05719e-11 -4.51191e-05 0.978957 
266 1 0.999765 8.17595 8.4967 3.66564 0 0 0 1.00315e-10 -1.58963e-06 0.978972 
267 1 0.999765 9.81114 5.66446 3.66564 0 0 0 -1.79544e-11 -4.5119e-05 0.978957 
268 1 0.999765 11.4463 8.4967 3.66564 0 0 0 2.76827e-11 -1.5895e-06 0.978972 
269 1 0.999765 13.0815 5.66446 3.66564 0 0 0 -8.65646e-11 -4.5119e-05 0.978957 
270 1 0.999765 14.7167 8.4967 3.66564 0 0 0 -3.57794e-11 -1.58938e-06 0.978972 
271 1 0.999765 16.3519 5.66446 3.66564 0 0 0 -5.70079e-11 -4.5119e-05 0.978957 
272 1 0.999765 17.9871 8.4967 3.66564 0 0 0 -3.59575e-11 -1.58932e-06 0.978972 
273 1 0.999765 19.6223 5.66446 3.66564 0 0 0 2.61181e-11 -4.5119e-05 0.978957 
274 1 0.999765 21.2575 8.4967 3.66564 0 0 0 -4.48583e-11 -1.58939e-06 0.978972 
275 1 0.999765 22.8927 5.66446 3.66564 0 0 0 6.17204e-11 -4.51191e-05 0.978957 
276 1 0.999765 24.5279 8.4967 3.66564 0 0 0 -5.58819e-11 -1.58954e-06 0.978972 
277 1 0.999765 26.163 5.66446 3.66564 0 0 0 5.90852e-11 -4.51192e-05 0.978957 
278 1 0.999765 27.7982 8.4967 3.66564 0 0 0 -3.04006e-11 -1.58969e-06 0.978972 
279 1 0.999765 29.4334 5.66446 3.66564 0 0 0 2.90825e-11 -4.51193e-05 0.978957 
280 1 0.999765 31.0686 8.4967 3.66564 0 0 0 -9.36495e-12 -1.58977e-06 0.978972 
281 1 0.999765 0 11.3289 3.66564 0 0 0 -3.22817e-11 3.39215e-05 0.978984 
282 1 0.999765 1.63519 14.1612 3.66564 0 0 0 -1.95541e-11 2.24265e-05 0.978985 
283 1 0.999765 3.27038 11.3289 3.66564 0 0 0 6.71907e-11 3.39214e-05 0.978984 
284 1 0.999765 4.90557 14.1612 3.66564 0 0 0 1.79806e-10 2.24265e-05 0.978985 
285 1 0.999765 6.54076 11.3289 3.66564 0 0 0 1.86941e-10 3.39215e-05 0.978984 
286 1 0.999765 8.17595 14.1612 3.66564 0 0 0 3.34754e-10 2.24266e-05 0.978985 
287 1 0.999765 9.81114 11.3289 3.66564 0 0 0 2.06358e-10 3.39216e-05 0.978984 
288 1 0.999765 11.4463 14.1612 3.66564 0 0 0 3.2385e-10 2.24267e-05 0.978985 
289 1 0.999765 13.0815 11.3289 3.66564 0 0 0 1.2274e-10 3.39218e-05 0.978984 
290 1 0.999765 14.7167 14.1612 3.66564 0 0 0 2.0018e-10 2.24269e-05 0.978985 
291 1 0.999765 16.3519 11.3289 3.66564 0 0 0 2.92895e-11 3.3922e-05 0.978984 
292 1 0.999765 17.9871 14.1612 3.66564 0 0 0 1.30629e-11 2.2427e-05 0.978985 
293 1 0.999765 19.6223 11.3289 3.66564 0 0 0 -8.25939e-11 3.3922e-05 0.978984 
294 1 0.999765 21.2575 14.1612 3.66564 0 0 0 -2.21023e-10 2.2427e-05 0.978985 
295 1 0.999765 22.8927 11.3289 3.66564 0 0 0 -1.93672e-10 3.39219e-05 0.978984 
296 1 0.999765 24.5279 14.1612 3.66564 0 0 0 -3.54224e-10 2.24269e-05 0.978985 
297 1 0.999765 26.163 11.3289 3.66564 0 0 0 -1.94772e-10 3.39217e-05 0.978984 
298 1 0.999765 27.7982 14.1612 3.66564 0 0 0 -2.94712e-10 2.24267e-05 0.978985 
299 1 0.999765 29.4334 11.3289 3.66564 0 0 0 -1.09665e-10 3.39216e-05 0.978984 
300 1 0.999765 31.0686 14.1612 3.66564 0 0 0 -1.62153e-10 2.24266e-05 0.978985 
301 1 0.999765 0 16.9934 3.66564 0 0 0 -1.6367e-10 -4.48419e-06 0.978974 
302 1 0.999765 1.63519 19.8256 3.66564 0 0 0 -9.76783e-11 -1.39862e-05 0.97896 
303 1 0.999765 3.27038 16.9934 3.66564 0 0 0 7.24354e-11 -4.48423e-06 0.978974 
304 1 0.999765 4.90557 19.8256 3.66564 0 0 0 2.1178e-10 -1.39862e-05 0.97896 
305 1 0.999765 6.54076 16.9934 3.66564 0 0 0 3.42711e-10 -4.4842e-06 0.978974 
306 1 0.999765 8.17595 19.8256 3.66564 0 0 0 4.59595e-10 -1.39862e-05 0.97896 
307 1 0.999765 9.81114 16.9934 3.66564 0 0 0 4.59238e-10 -4.48413e-06 0.978974 
308 1 0.999765 11.4463 19.8256 3.66564 0 0 0 4.78339e-10 -1.39862e-05 0.97896 
309 1 0.999765 13.0815 16.9934 3.66564 0 0 0 3.75149e-10 -4.48404e-06 0.978974 
310 1 0.999765 14.7167 19.8256 3.66564 0 0 0 3.30834e-10 -1.39862e-05 0.97896 
311 1 0.999765 16.3519 16.9934 3.66564 0 0 0 1.80389e-10 -4.48396e-06 0.978974 
312 1 0.999765 17.9871 19.8256 3.66564 0 0 0 8.32339e-11 -1.39862e-05 0.97896 
313 1 0.999765 19.6223 16.9934 3.66564 0 0 0 -1.0405e-10 -4.48393e-06 0.978974 
314 1 0.999765 21.2575 19.8256 3.66564 0 0 0 -2.43191e-10 -1.39861e-05 0.97896 
315 1 0.999765 22.8927 16.9934 3.66564 0 0 0 -3.79601e-10 -4.48394e-06 0.978974 
316 1 0.999765 24.5279 19.8256 3.66564 0 0 0 -4.63997e-10 -1.39861e-05 0.97896 
317 1 0.999765 26.163 16.9934 3.66564 0 0 0 -4.49539e-10 -4.48401e-06 0.978974 
318 1 0.999765 27.7982 19.8256 3.66564 0 0 0 -4.50184e-10 -1.39861e-05 0.97896 
319 1 0.999765 29.4334 16.9934 3.66564 0 0 0 -3.3328e-10 -4.4841e-06 0.978974 
320 1 0.999765 31.0686 19.8256 3.66564 0 0 0 -3.09612e-10 -1.39861e-05 0.97896 
321 1 0.999765 0 22.6579 3.66564 0 0 0 -2.45109e-10 -1.44957e-05 0.978948 
322 1 0.999765 1.63519 25.4901 3.66564 0 0 0 -1.74035e-10 -9.91336e-06 0.978935 
323 1 0.999765 3.27038 22.6579 3.66564 0 0 0 -4.55636e-12 -1.44958e-05 0.978948 
324 1 0.999765 4.90557 25.4901 3.66564 0 0 0 5.53513e-11 -9.91344e-06 0.978935 
325 1 0.999765 6.54076 22.6579 3.66564 0 0 0 2.99418e-10 -1.44959e-05 0.978948 
326 1 0.999765 8.17595 25.4901 3.66564 0 0 0 2.85888e-10 -9.91358e-06 0.978935 
327 1 0.999765 9.81114 22.6579 3.66564 0 0 0 4.53855e-10 -1.4496e-05 0.978948 
328 1 0.999765 11.4463 25.4901 3.66564 0 0 0 3.58814e-10 -9.91373e-06 0.978935 
329 1 0.999765 13.0815 22.6579 3.66564 0 0 0 4.05136e-10 -1.44961e-05 0.978948 
330 1 0.999765 14.7167 25.4901 3.66564 0 0 0 3.04922e-10 -9.91383e-06 0.978935 
331 1 0.999765 16.3519 22.6579 3.66564 0 0 0 2.44332e-10 -1.44961e-05 0.978948 
332 1 0.999765 17.9871 25.4901 3.66564 0 0 0 1.55757e-10 -9.91385e-06 0.978935 
333 1 0.999765 19.6223 22.6579 3.66564 0 0 0 -2.34044e-11 -1.4496e-05 0.978948 
334 1 0.999765 21.2575 25.4901 3.66564 0 0 0 -9.43048e-11 -9.91379e-06 0.978935 
335 1 0.999765 22.8927 22.6579 3.66564 0 0 0 -3.16109e-10 -1.44959e-05 0.978948 
336 1 0.999765 24.5279 25.4901 3.66564 0 0 0 -2.92229e-10 -9.91366e-06 0.978935 
337 1 0.999765 26.163 22.6579 3.66564 0 0 0 -4.36273e-10 -1.44958e-05 0.978948 
338 1 0.999765 27.7982 25.4901 3.66564 0 0 0 -3.23727e-10 -9.91351e-06 0.978935 
339 1 0.999765 29.4334 22.6579 3.66564 0 0 0 -3.77923e-10 -1.44958e-05 0.978948 
340 1 0.999765 31.0686 25.4901 3.66564 0 0 0 -2.76195e-10 -9.91339e-06 0.978935 
341 1 0.999765 0 28.3223 3.66564 0 0 0 -1.95204e-10 1.33142e-05 0.978921 
342 1 0.999765 1.63519 31.1546 3.66564 0 0 0 -1.52592e-10 3.52599e-05 0.978917 
343 1 0.999765 3.27038 28.3223 3.66564 0 0 0 -1.21666e-10 1.33142e-05 0.978921 
344 1 0.999765 4.90557 31.1546 3.66564 0 0 0 -8.54513e-11 3.52599e-05 0.978917 
345 1 0.999765 6.54076 28.3223 3.66564 0 0 0 6.31987e-11 1.33141e-05 0.978921 
346 1 0.999765 8.17595 31.1546 3.66564 0 0 0 3.61919e-11 3.52598e-05 0.978917 
347 1 0.999765 9.81114 28.3223 3.66564 0 0 0 2.03959e-10 1.33139e-05 0.978921 
348 1 0.999765 11.4463 31.1546 3.66564 0 0 0 9.5203e-11 3.52597e-05 0.978917 
349 1 0.999765 13.0815 28.3223 3.66564 0 0 0 2.36048e-10 1.33138e-05 0.978921 
350 1 0.999765 14.7167 31.1546 3.66564 0 0 0 1.18946e-10 3.52596e-05 0.978917 
351 1 0.999765 16.3519 28.3223 3.66564 0 0 0 2.03024e-10 1.33137e-05 0.978921 
352 1 0.999765 17.9871 31.1546 3.66564 0 0 0 1.21009e-10 3.52595e-05 0.978917 
353 1 0.999765 19.6223 28.3223 3.66564 0 0 0 7.81307e-11 1.33137e-05 0.978921 
354 1 0.999765 21.2575 31.1546 3.66564 0 0 0 5.23874e-11 3.52595e-05 0.978917 
355 1 0.999765 22.8927 28.3223 3.66564 0 0 0 -9.78027e-11 1.33137e-05 0.978921 
356 1 0.999765 24.5279 31.1546 3.66564 0 0 0 -2.44291e-11 3.52596e-05 0.978917 
357 1 0.999765 26.163 28.3223 3.66564 0 0 0 -1.81455e-10 1.33139e-05 0.978921 
358 1 0.999765 27.7982 31.1546 3.66564 0 0 0 -5.52802e-11 3.52597e-05 0.978917 
359 1 0.999765 29.4334 28.3223 3.66564 0 0 0 -1.88606e-10 1.33141e-05 0.978921 
360 1 0.999765 31.0686 31.1546 3.66564 0 0 0 -1.057e-10 3.52598e-05 0.978917 
361 2 -0.99009 0 1.88815 4.33205 0 0 0 7.42659e-11 1.60341e-05 3.17995 
362 2 -0.99009 1.63519 4.72039 4.33205 0 0 0 4.93259e-11 4.76473e-05 3.17993 
363 2 -0.99009 3.27038 1.88815 4.33205 0 0 0 1.04823e-10 1.6034e-05 3.17995 
364 2 -0.99009 4.90557 4.72039 4.33205 0 0 0 2.01972e-11 4.76472e-05 3.17993 
365 2 -0.99009 6.54076 1.88815 4.33205 0 0 0 5.48879e-11 1.6034e-05 3.17995 
366 2 -0.99009 8.17595 4.72039 4.33205 0 0 0 6.92746e-12 4.76471e-05 3.17993 
367 2 -0.99009 9.81114 1.88815 4.33205 0 0 0 4.81954e-11 1.6034e-05 3.17995 
368 2 -0.99009 11.4463 4.72039 4.33205 0 0 0 7.57832e-11 4.76471e-05 3.17993 
369 2 -0.99009 13.0815 1.88815 4.33205 0 0 0 6.76877e-11 1.60341e-05 3.17995 
370 2 -0.99009 14.7167 4.72039 4.33205 0 0 0 9.15028e-11 4.76471e-05 3.17993 
371 2 -0.99009 16.3519 1.88815 4.33205 0 0 0 1.78162e-12 1.60341e-05 3.17995 
372 2 -0.99009 17.9871 4.72039 4.33205 0 0 0 1.43825e-12 4.76471e-05 3.17993 
373 2 -0.99009 19.6223 1.88815 4.33205 0 0 0 -9.49495e-11 1.60342e-05 3.17995 
374 2 -0.99009 21.2575 4.72039 4.33205 0 0 0 -8.17588e-11 4.76472e-05 3.17993 
375 2 -0.99009 22.8927 1.88815 4.33205 0 0 0 -1.24433e-10 1.60342e-05 3.17995 
376 2 -0.99009 24.5279 4.72039 4.33205 0 0 0 -9.50775e-11 4.76473e-05 3.17993 
377 2 -0.99009 26.163 1.88815 4.33205 0 0 0 -1.00825e-10 1.60342e-05 3.17995 
378 2 -0.99009 27.7982 4.72039 4.33205 0 0 0 -6.85132e-11 4.76473e-05 3.17993 
379 2 -0.99009 29.4334 1.88815 4.33205 0 0 0 -3.0937e-11 1.60341e-05 3.17995 
380 2 -0.99009 31.0686 4.72039 4.33205 0 0 0 -1.68754e-13 4.76473e-05 3.17993 
381 2 -0.99009 0 7.55262 4.33205 0 0 0 5.84777e-12 1.63137e-05 3.17991 
382 2 -0.99009 1.63519 10.3849 4.33205 0 0 0 -1.52127e-11 -3.03001e-05 3.1799 
383 2 -0.99009 3.27038 7.55262 4.33205 0 0 0 -2.34515e-11 1.63137e-05 3.17991 
384 2 -0.99009 4.90557 10.3849 4.33205 0 0 0 -1.24981e-10 -3.03001e-05 3.1799 
385 2 -0.99009 6.54076 7.55262 4.33205 0 0 0 -8.02598e-11 1.63136e-05 3.17991 
386 2 -0.99009 8.17595 10.3849 4.33205 0 0 0 -1.95584e-10 -3.03002e-05 3.1799 
387 2 -0.99009 9.81114 7.55262 4.33205 0 0 0 -4.35419e-11 1.63135e-05 3.17991 
388 2 -0.99009 11.4463 10.3849 4.33205 0 0 0 -1.35444e-10 -3.03004e-05 3.1799 
389 2 -0.99009 13.0815 7.55262 4.33205 0 0 0 4.71668e-11 1.63134e-05 3.17991 
390 2 -0.99009 14.7167 10.3849 4.33205 0 0 0 -4.11404e-11 -3.03006e-05 3.1799 
391 2 -0.99009 16.3519 7.55262 4.33205 0 0 0 5.48958e-11 1.63133e-05 3.17991 
392 2 -0.99009 17.9871 10.3849 4.33205 0 0 0 3.44897e-11 -3.03007e-05 3.1799 
393 2 -0.99009 19.6223 7.55262 4.33205 0 0 0 2.00207e-11 1.63133e-05 3.17991 
394 2 -0.99009 21.2575 10.3849 4.33205 0 0 0 1.28779e-10 -3.03006e-05 3.1799 
395 2 -0.99009 22.8927 7.55262 4.33205 0 0 0 1.73623e-11 1.63134e-05 3.17991 
396 2 -0.99009 24.5279 10.3849 4.33205 0 0 0 1.78778e-10 -3.03004e-05 3.1799 
397 2 -0.99009 26.163 7.55262 4.33205 0 0 0 8.45057e-12 1.63136e-05 3.17991 
398 2 -0.99009 27.7982 10.3849 4.33205 0 0 0 1.20901e-10 -3.03003e-05 3.1799 
399 2 -0.99009 29.4334 7.55262 4.33205 0 0 0 -5.41789e-12 1.63137e-05 3.17991 
400 2 -0.99009 31.0686 10.3849 4.33205 0 0 0 4.88667e-11 -3.03001e-05 3.1799 
401 2 -0.99009 0 13.2171 4.33205 0 0 0 8.08384e-11 -3.14874e-05 3.17989 
402 2 -0.99009 1.63519 16.0493 4.33205 0 0 0 4.98375e-11 -2.74357e-07 3.1799 
403 2 -0.99009 3.27038 13.2171 4.33205 0 0 0 -7.96749e-11 -3.14874e-05 3.17989 
404 2 -0.99009 4.90557 16.0493 4.33205 0 0 0 -2.2456e-10 -2.74352e-07 3.1799 
405 2 -0.99009 6.54076 13.2171 4.33205 0 0 0 -2.71511e-10 -3.14874e-05 3.17989 
406 2 -0.99009 8.17595 16.0493 4.33205 0 0 0 -4.44672e-10 -2.74429e-07 3.1799 
407 2 -0.99009 9.81114 13.2171 4.33205 0 0 0 -3.37863e-10 -3.14876e-05 3.17989 
408 2 -0.99009 11.4463 16.0493 4.33205 0 0 0 -4.45709e-10 -2.7455e-07 3.1799 
409 2 -0.99009 13.0815 13.2171 4.33205 0 0 0 -2.4805e-10 -3.14878e-05 3.17989 
410 2 -0.99009 14.7167 16.0493 4.33205 0 0 0 -2.89177e-10 -2.74667e-07 3.1799 
411 2 -0.99009 16.3519 13.2171 4.33205 0 0 0 -9.65628e-11 -3.14879e-05 3.17989 
412 2 -0.99009 17.9871 16.0493 4.33205 0 0 0 -3.73888e-11 -2.7474e-07 3.1799 
413 2 -0.99009 19.6223 13.2171 4.33205 0 0 0 1.12465e-10 -3.1488e-05 3.17989 
414 2 -0.99009 21.2575 16.0493 4.33205 0 0 0 2.75435e-10 -2.74745e-07 3.1799 
415 2 -0.99009 22.8927 13.2171 4.33205 0 0 0 3.07872e-10 -3.14879e-05 3.17989 
416 2 -0.99009 24.5279 16.0493 4.33205 0 0 0 4.63797e-10 -2.74677e-07 3.1799 
417 2 -0.99009 26.163 13.2171 4.33205 0 0 0 3.27932e-10 -3.14877e-05 3.17989 
418 2 -0.99009 27.7982 16.0493 4.33205 0 0 0 4.06418e-10 -2.74561e-07 3.1799 
419 2 -0.99009 29.4334 13.2171 4.33205 0 0 0 2.0496e-10 -3.14875e-05 3.17989 
420 2 -0.99009 31.0686 16.0493 4.33205 0 0 0 2.45228e-10 -2.74439e-07 3.1799 
421 2 -0.99009 0 18.8815 4.33205 0 0 0 2.21107e-10 1.65914e-05 3.17992 
422 2 -0.99009 1.63519 21.7138 4.33205 0 0 0 1.4316e-10 1.73639e-05 3.17993 
423 2 -0.99009 3.27038 18.8815 4.33205 0 0 0 -6.36327e-11 1.65915e-05 3.17992 
424 2 -0.99009 4.90557 21.7138 4.33205 0 0 0 -1.89575e-10 1.7364e-05 3.17993 
425 2 -0.99009 6.54076 18.8815 4.33205 0 0 0 -3.95474e-10 1.65915e-05 3.17992 
426 2 -0.99009 8.17595 21.7138 4.33205 0 0 0 -4.70749e-10 1.73641e-05 3.17993 
427 2 -0.99009 9.81114 18.8815 4.33205 0 0 0 -5.40581e-10 1.65914e-05 3.17992 
428 2 -0.99009 11.4463 21.7138 4.33205 0 0 0 -5.06915e-10 1.73642e-05 3.17993 
429 2 -0.99009 13.0815 18.8815 4.33205 0 0 0 -4.46832e-10 1.65914e-05 3.17992 
430 2 -0.99009 14.7167 21.7138 4.33205 0 0 0 -3.68715e-10 1.73642e-05 3.17993 
431 2 -0.99009 16.3519 18.8815 4.33205 0 0 0 -2.26066e-10 1.65914e-05 3.17992 
432 2 -0.99009 17.9871 21.7138 4.33205 0 0 0 -1.20693e-10 1.73642e-05 3.17993 
433 2 -0.99009 19.6223 18.8815 4.33205 0 0 0 9.99449e-11 1.65913e-05 3.17992 
434 2 -0.99009 21.2575 21.7138 4.33205 0 0 0 2.20467e-10 1.73641e-05 3.17993 
435 2 -0.99009 22.8927 18.8815 4.33205 0 0 0 4.228e-10 1.65913e-05 3.17992 
436 2 -0.99009 24.5279 21.7138 4.33205 0 0 0 4.67418e-10 1.7364e-05 3.17993 
437 2 -0.99009 26.163 18.8815 4.33205 0 0 0 5.22201e-10 1.65913e-05 3.17992 
438 2 -0.99009 27.7982 21.7138 4.33205 0 0 0 4.73727e-10 1.73639e-05 3.17993 
439 2 -0.99009 29.4334 18.8815 4.33205 0 0 0 4.07134e-10 1.65913e-05 3.17992 
440 2 -0.99009 31.0686 21.7138 4.33205 0 0 0 3.51359e-10 1.73639e-05 3.17993 
441 2 -0.99009 0 24.546 4.33205 0 0 0 2.71605e-10 1.65535e-05 3.17994 
442 2 -0.99009 1.63519 27.3782 4.33205 0 0 0 2.00636e-10 -1.8366e-07 3.17996 
443 2 -0.99009 3.27038 24.546 4.33205 0 0 0 6.3169e-11 1.65535e-05 3.17994 
444 2 -0.99009 4.90557 27.3782 4.33205 0 0 0 1.72147e-11 -1.83607e-07 3.17996 
445 2 -0.99009 6.54076 24.546 4.33205 0 0 0 -2.41028e-10 1.65537e-05 3.17994 
446 2 -0.99009 8.17595 27.3782 4.33205 0 0 0 -2.05905e-10 -1.8346e-07 3.17996 
447 2 -0.99009 9.81114 24.546 4.33205 0 0 0 -4.18055e-10 1.65538e-05 3.17994 
448 2 -0.99009 11.4463 27.3782 4.33205 0 0 0 -2.99268e-10 -1.83282e-07 3.17996 
449 2 -0.99009 13.0815 24.546 4.33205 0 0 0 -4.02238e-10 1.65539e-05 3.17994 
450 2 -0.99009 14.7167 27.3782 4.33205 0 0 0 -2.84143e-10 -1.83143e-07 3.17996 
451 2 -0.99009 16.3519 24.546 4.33205 0 0 0 -2.73729e-10 1.6554e-05 3.17994 
452 2 -0.99009 17.9871 27.3782 4.33205 0 0 0 -1.76441e-10 -1.83082e-07 3.17996 
453 2 -0.99009 19.6223 24.546 4.33205 0 0 0 -2.41158e-11 1.6554e-05 3.17994 
454 2 -0.99009 21.2575 27.3782 4.33205 0 0 0 3.68311e-11 -1.83127e-07 3.17996 
455 2 -0.99009 22.8927 24.546 4.33205 0 0 0 2.67126e-10 1.65538e-05 3.17994 
456 2 -0.99009 24.5279 27.3782 4.33205 0 0 0 2.14875e-10 -1.83269e-07 3.17996 
457 2 -0.99009 26.163 24.546 4.33205 0 0 0 3.96136e-10 1.65537e-05 3.17994 
458 2 -0.99009 27.7982 27.3782 4.33205 0 0 0 2.51273e-10 -1.8345e-07 3.17996 
459 2 -0.99009 29.4334 24.546 4.33205 0 0 0 3.61403e-10 1.65536e-05 3.17994 
460 2 -0.99009 31.0686 27.3782 4.33205 0 0 0 2.44802e-10 -1.83599e-07 3.17996 
461 2 -0.99009 0 30.2105 4.33205 0 0 0 1.736e-10 -3.1382e-05 3.17997 
462 2 -0.99009 1.63519 33.0427 4.33205 0 0 0 1.46734e-10 -3.04511e-05 3.17996 
463 2 -0.99009 3.27038 30.2105 4.33205 0 0 0 1.52601e-10 -3.13821e-05 3.17997 
464 2 -0.99009 4.90557 33.0427 4.33205 0 0 0 1.07796e-10 -3.04511e-05 3.17996 
465 2 -0.99009 6.54076 30.2105 4.33205 0 0 0 3.9132e-12 -3.1382e-05 3.17997 
466 2 -0.99009 8.17595 33.0427 4.33205 0 0 0 1.55937e-11 -3.04511e-05 3.17996 
467 2 -0.99009 9.81114 30.2105 4.33205 0 0 0 -1.214e-10 -3.13819e-05 3.17997 
468 2 -0.99009 11.4463 33.0427 4.33205 0 0 0 -1.87947e-11 -3.0451e-05 3.17996 
469 2 -0.99009 13.0815 30.2105 4.33205 0 0 0 -1.64671e-10 -3.13817e-05 3.17997 
470 2 -0.99009 14.7167 33.0427 4.33205 0 0 0 -5.09024e-11 -3.04509e-05 3.17996 
471 2 -0.99009 16.3519 30.2105 4.33205 0 0 0 -1.71749e-10 -3.13816e-05 3.17997 
472 2 -0.99009 17.9871 33.0427 4.33205 0 0 0 -1.02558e-10 -3.04508e-05 3.17996 